<?xml version="1.0" encoding="UTF-8"?>

<!-- generated on 2023-11-08 18:15:34 by Eclipse SUMO GUI Version 1.19.0
<configuration xmlns:xsi="http://www.w3.org/2001/XMLSchema-instance" xsi:noNamespaceSchemaLocation="http://sumo.dlr.de/xsd/sumoConfiguration.xsd">

    <input>
        <net-file value="intelligent_traffic.net.xml"/>
        <route-files value="intelligent_traffic.rou.xml"/>
    </input>

    <output>
        <tripinfo-output value="intelligent_lights_output_file.xml"/>
    </output>

    <time>
        <begin value="0"/>
        <end value="15000"/>
        <step-length value="0.01"/>
    </time>

    <report>
        <duration-log.statistics value="true"/>
    </report>

    <traci_server>
        <remote-port value="36901"/>
    </traci_server>

    <gui_only>
        <gui-settings-file value="intelligent_traffic.gui.xml"/>
        <start value="true"/>
    </gui_only>

</configuration>
-->

<detector xmlns:xsi="http://www.w3.org/2001/XMLSchema-instance" xsi:noNamespaceSchemaLocation="http://sumo.dlr.de/xsd/det_e1_file.xsd">
    <interval begin="0.00" end="148.34" id="junction_0_D0.0" nVehContrib="19" flow="461.10" occupancy="2.05" speed="25.00" harmonicMeanSpeed="25.00" length="4.00" nVehEntered="19"/>
    <interval begin="0.00" end="148.34" id="junction_0_D0.1" nVehContrib="16" flow="388.30" occupancy="17.53" speed="10.98" harmonicMeanSpeed="2.46" length="4.00" nVehEntered="16"/>
    <interval begin="0.00" end="148.34" id="junction_0_D0.2" nVehContrib="4" flow="97.07" occupancy="13.73" speed="6.94" harmonicMeanSpeed="0.79" length="4.00" nVehEntered="4"/>
    <interval begin="0.00" end="148.34" id="junction_0_D1.0" nVehContrib="7" flow="169.88" occupancy="0.76" speed="25.00" harmonicMeanSpeed="25.00" length="4.00" nVehEntered="7"/>
    <interval begin="0.00" end="148.34" id="junction_0_D1.1" nVehContrib="5" flow="121.34" occupancy="9.56" speed="13.33" harmonicMeanSpeed="2.64" length="4.00" nVehEntered="6"/>
    <interval begin="0.00" end="148.34" id="junction_0_D1.2" nVehContrib="13" flow="315.49" occupancy="15.20" speed="16.28" harmonicMeanSpeed="2.31" length="4.00" nVehEntered="13"/>
    <interval begin="0.00" end="148.34" id="junction_0_D2.0" nVehContrib="11" flow="266.95" occupancy="1.19" speed="25.00" harmonicMeanSpeed="25.00" length="4.00" nVehEntered="11"/>
    <interval begin="0.00" end="148.34" id="junction_0_D2.1" nVehContrib="14" flow="339.76" occupancy="16.43" speed="13.00" harmonicMeanSpeed="2.30" length="4.00" nVehEntered="14"/>
    <interval begin="0.00" end="148.34" id="junction_0_D2.2" nVehContrib="5" flow="121.34" occupancy="13.83" speed="10.54" harmonicMeanSpeed="0.98" length="4.00" nVehEntered="5"/>
    <interval begin="0.00" end="148.34" id="junction_0_D3.0" nVehContrib="18" flow="436.83" occupancy="1.94" speed="25.00" harmonicMeanSpeed="25.00" length="4.00" nVehEntered="18"/>
    <interval begin="0.00" end="148.34" id="junction_0_D3.1" nVehContrib="11" flow="266.95" occupancy="8.08" speed="20.19" harmonicMeanSpeed="5.21" length="4.00" nVehEntered="12"/>
    <interval begin="0.00" end="148.34" id="junction_0_D3.2" nVehContrib="8" flow="194.15" occupancy="5.40" speed="17.68" harmonicMeanSpeed="4.00" length="4.00" nVehEntered="8"/>
</detector>
